<?xml version="1.0"?>
<VTKFile type="UnstructuredGrid" version="0.1" byte_order="LittleEndian" compressor="vtkZLibDataCompressor">
<Genius xmlns="http://www.cogenda.com/xmlns/Genius/vtu/Genius/1.0">
  <mesh dimension="3" />
  <regions>
    <region id="0" name="Source" material="Si" />
    <region id="1" name="Drain" material="Si" />
    <region id="2" name="Gate" material="NPoly" />
    <region id="3" name="Channel1_HfO2" material="HfO2" />
    <region id="4" name="Channel1_SiO2" material="SiO2" />
    <region id="5" name="Channel2_HfO2" material="HfO2" />
    <region id="6" name="Channel2_SiO2" material="SiO2" />
    <region id="7" name="SPS" material="Nitride" />
    <region id="8" name="SPD" material="Nitride" />
    <region id="9" name="Source_Ext1" material="Si" />
    <region id="10" name="Channel1" material="Si" />
    <region id="11" name="Drain_Ext1" material="Si" />
    <region id="12" name="Source_Ext2" material="Si" />
    <region id="13" name="Channel2" material="Si" />
    <region id="14" name="Drain_Ext2" material="Si" />
    <region id="15" name="Source_Contact" material="Al" />
    <region id="16" name="Drain_Contact" material="Al" />
    <region id="17" name="Box" material="Ox" />
  </regions>
  <boundaries>
    <boundary id="1" name="Source_Neumann" bc="NeumannBoundary" />
    <boundary id="2" name="Drain_Neumann" bc="NeumannBoundary" />
    <boundary id="3" name="Gate_Neumann" bc="NeumannBoundary" />
    <boundary id="8" name="SPS_Neumann" bc="NeumannBoundary" />
    <boundary id="9" name="SPD_Neumann" bc="NeumannBoundary" />
    <boundary id="16" name="Source_Contact_Neumann" bc="NeumannBoundary" />
    <boundary id="17" name="Drain_Contact_Neumann" bc="NeumannBoundary" />
    <boundary id="18" name="Box_Neumann" bc="NeumannBoundary" />
    <boundary id="19" name="Box_to_Drain" bc="IF_Insulator_Semiconductor" />
    <boundary id="20" name="Box_to_SPD" bc="IF_Insulator_Insulator" />
    <boundary id="21" name="Box_to_Gate" bc="GateContact" />
    <boundary id="22" name="Box_to_SPS" bc="IF_Insulator_Insulator" />
    <boundary id="23" name="Box_to_Source" bc="IF_Insulator_Semiconductor" />
    <boundary id="24" name="Drain_to_Drain_Contact" bc="OhmicContact" />
    <boundary id="25" name="Box_to_Drain_Contact" bc="IF_Electrode_Insulator" />
    <boundary id="26" name="Drain_to_SPD" bc="IF_Insulator_Semiconductor" />
    <boundary id="27" name="Gate_to_SPS" bc="GateContact" />
    <boundary id="28" name="SPS_to_Source" bc="IF_Insulator_Semiconductor" />
    <boundary id="29" name="Source_to_Source_Contact" bc="OhmicContact" />
    <boundary id="30" name="Gate_to_SPD" bc="GateContact" />
    <boundary id="31" name="Channel2_HfO2_to_SPD" bc="IF_Insulator_Insulator" />
    <boundary id="32" name="Channel1_HfO2_to_Gate" bc="GateContact" />
    <boundary id="33" name="Channel1_HfO2_to_Channel1_SiO2" bc="IF_Insulator_Insulator" />
    <boundary id="34" name="Channel1_to_Channel1_SiO2" bc="IF_Insulator_Semiconductor" />
    <boundary id="35" name="Channel1_HfO2_to_SPS" bc="IF_Insulator_Insulator" />
    <boundary id="36" name="Channel1_HfO2_to_SPD" bc="IF_Insulator_Insulator" />
    <boundary id="37" name="Drain_Ext1_to_SPD" bc="IF_Insulator_Semiconductor" />
    <boundary id="38" name="Channel1_SiO2_to_SPD" bc="IF_Insulator_Insulator" />
    <boundary id="39" name="SPS_to_Source_Ext1" bc="IF_Insulator_Semiconductor" />
    <boundary id="40" name="Drain_to_Drain_Ext1" bc="HomoInterface" />
    <boundary id="41" name="Source_to_Source_Ext2" bc="HomoInterface" />
    <boundary id="42" name="Channel1_to_Drain_Ext1" bc="HomoInterface" />
    <boundary id="43" name="Drain_to_Drain_Ext2" bc="HomoInterface" />
    <boundary id="44" name="Channel2_to_Source_Ext2" bc="HomoInterface" />
    <boundary id="45" name="Channel2_to_Channel2_SiO2" bc="IF_Insulator_Semiconductor" />
    <boundary id="46" name="Channel2_HfO2_to_Gate" bc="GateContact" />
    <boundary id="47" name="Channel1_to_Source_Ext1" bc="HomoInterface" />
    <boundary id="48" name="Source_to_Source_Ext1" bc="HomoInterface" />
    <boundary id="49" name="Drain_Ext2_to_SPD" bc="IF_Insulator_Semiconductor" />
    <boundary id="50" name="Channel2_SiO2_to_SPS" bc="IF_Insulator_Insulator" />
    <boundary id="51" name="SPS_to_Source_Ext2" bc="IF_Insulator_Semiconductor" />
    <boundary id="52" name="Channel2_HfO2_to_Channel2_SiO2" bc="IF_Insulator_Insulator" />
    <boundary id="53" name="Channel2_to_Drain_Ext2" bc="HomoInterface" />
    <boundary id="54" name="Box_to_Source_Contact" bc="IF_Electrode_Insulator" />
    <boundary id="55" name="Channel2_HfO2_to_SPS" bc="IF_Insulator_Insulator" />
    <boundary id="56" name="Channel2_SiO2_to_SPD" bc="IF_Insulator_Insulator" />
    <boundary id="57" name="Channel1_SiO2_to_SPS" bc="IF_Insulator_Insulator" />
  </boundaries>
  <contacts>
  </contacts>
</Genius>
  <UnstructuredGrid>
    <Piece NumberOfPoints="139040"               NumberOfCells="169056"              >
      <PointData>
        <DataArray type="Float32" Name="dmin[nm]" format="appended" RangeMin="0"                    RangeMax="20"                   offset="0"                   />
        <DataArray type="Float32" Name="channel[nm]" format="appended" RangeMin="0"                    RangeMax="30"                   offset="8332"                />
        <DataArray type="Float32" Name="orientation" format="appended" RangeMin="0"                    RangeMax="100"                  offset="22356"               />
        <DataArray type="Float32" Name="potential[V]" format="appended" RangeMin="-4.25"                RangeMax="-1.0700000525"        offset="23716"               />
        <DataArray type="Float32" Name="E[V/cm]" format="appended" RangeMin="0"                    RangeMax="0"                    offset="26076"               />
        <DataArray type="Float32" Name="elec_density[cm-3]" format="appended" RangeMin="0"                    RangeMax="1.9999999961e+19"     offset="27368"               />
        <DataArray type="Float32" Name="hole_density[cm-3]" format="appended" RangeMin="0"                    RangeMax="11.556699753"         offset="29328"               />
        <DataArray type="Float32" Name="Na[cm-3]" format="appended" RangeMin="0"                    RangeMax="0"                    offset="31516"               />
        <DataArray type="Float32" Name="Nd[cm-3]" format="appended" RangeMin="0"                    RangeMax="1.9999999961e+19"     offset="32808"               />
        <DataArray type="Float32" Name="ActiveNa[cm-3]" format="appended" RangeMin="0"                    RangeMax="0"                    offset="34768"               />
        <DataArray type="Float32" Name="ActiveNd[cm-3]" format="appended" RangeMin="0"                    RangeMax="1.9999999961e+19"     offset="36060"               />
        <DataArray type="Float32" Name="net_doping[cm-3]" format="appended" RangeMin="0"                    RangeMax="1.9999999961e+19"     offset="38020"               />
        <DataArray type="Float32" Name="net_charge[cm-3]" format="appended" RangeMin="0"                    RangeMax="11.556699753"         offset="39980"               />
        <DataArray type="Float32" Name="mole_x" format="appended" RangeMin="0"                    RangeMax="0"                    offset="42168"               />
        <DataArray type="Float32" Name="mole_y" format="appended" RangeMin="0"                    RangeMax="0"                    offset="43460"               />
        <DataArray type="Float32" Name="recombination[cm-3/s]" format="appended" RangeMin="0"                    RangeMax="0"                    offset="44752"               />
        <DataArray type="Float32" Name="recombination_dir[cm-3/s]" format="appended" RangeMin="0"                    RangeMax="0"                    offset="46044"               />
        <DataArray type="Float32" Name="recombination_srh[cm-3/s]" format="appended" RangeMin="0"                    RangeMax="0"                    offset="47336"               />
        <DataArray type="Float32" Name="recombination_auger[cm-3/s]" format="appended" RangeMin="0"                    RangeMax="0"                    offset="48628"               />
        <DataArray type="Float32" Name="elec_mobility[cm2/V/s]" format="appended" RangeMin="0"                    RangeMax="103.59766388"         offset="49920"               />
        <DataArray type="Float32" Name="hole_mobility[cm2/V/s]" format="appended" RangeMin="0"                    RangeMax="72.279426575"         offset="52136"               />
        <DataArray type="Float32" Name="impact_ionization[cm-3/s]" format="appended" RangeMin="0"                    RangeMax="0"                    offset="54344"               />
        <DataArray type="Float32" Name="bandbandtunneling[cm-3/s]" format="appended" RangeMin="0"                    RangeMax="0"                    offset="55636"               />
        <DataArray type="Float32" Name="electron_pseudo_time[cm-3/s]" format="appended" RangeMin="0"                    RangeMax="0"                    offset="56928"               />
        <DataArray type="Float32" Name="hole_pseudo_time[cm-3/s]" format="appended" RangeMin="0"                    RangeMax="0"                    offset="58220"               />
        <DataArray type="Float32" Name="Ec[eV]" format="appended" RangeMin="-8.881784197e-16"     RangeMax="0.027135707438"       offset="59512"               />
        <DataArray type="Float32" Name="Ev[eV]" format="appended" RangeMin="-9"                   RangeMax="-8.881784197e-16"     offset="61836"               />
        <DataArray type="Float32" Name="Ec_shift[eV]" format="appended" RangeMin="0"                    RangeMax="0"                    offset="64192"               />
        <DataArray type="Float32" Name="Ev_shift[eV]" format="appended" RangeMin="0"                    RangeMax="0"                    offset="65484"               />
        <DataArray type="Float32" Name="elec_quasi_Fermi[eV]" format="appended" RangeMin="-4.5"                 RangeMax="0"                    offset="66776"               />
        <DataArray type="Float32" Name="hole_quasi_Fermi[eV]" format="appended" RangeMin="-4.5"                 RangeMax="0"                    offset="68240"               />
        <DataArray type="Float32" Name="trap_charge[cm-3]" format="appended" RangeMin="0"                    RangeMax="0"                    offset="69704"               />
        <DataArray type="Float32" Name="trap_elec_capture_rate[cm-3/s]" format="appended" RangeMin="0"                    RangeMax="0"                    offset="70996"               />
        <DataArray type="Float32" Name="trap_hole_capture_rate[cm-3/s]" format="appended" RangeMin="0"                    RangeMax="0"                    offset="72288"               />
        <DataArray type="Float32" Name="surface_trap_charge[cm-2]" format="appended" RangeMin="0"                    RangeMax="0"                    offset="73580"               />
        <DataArray type="Float32" Name="surface_trap_elec_capture_rate[cm-2/s]" format="appended" RangeMin="0"                    RangeMax="0"                    offset="74872"               />
        <DataArray type="Float32" Name="surface_trap_hole_capture_rate[cm-2/s]" format="appended" RangeMin="0"                    RangeMax="0"                    offset="76164"               />
        <DataArray type="Float32" Name="Stress[Pa]" format="appended" RangeMin="0"                    RangeMax="0"                    offset="77456"               />
        <DataArray type="Float32" Name="StressXX[Pa]" format="appended" RangeMin="0"                    RangeMax="0"                    offset="78748"               />
        <DataArray type="Float32" Name="StressXY[Pa]" format="appended" RangeMin="0"                    RangeMax="0"                    offset="80040"               />
        <DataArray type="Float32" Name="StressXZ[Pa]" format="appended" RangeMin="0"                    RangeMax="0"                    offset="81332"               />
        <DataArray type="Float32" Name="StressYY[Pa]" format="appended" RangeMin="0"                    RangeMax="0"                    offset="82624"               />
        <DataArray type="Float32" Name="StressYZ[Pa]" format="appended" RangeMin="0"                    RangeMax="0"                    offset="83916"               />
        <DataArray type="Float32" Name="StressZZ[Pa]" format="appended" RangeMin="0"                    RangeMax="0"                    offset="85208"               />
        <DataArray type="Float32" Name="elec_mobility_xx[cm2/V/s]" format="appended" RangeMin="0"                    RangeMax="0"                    offset="86500"               />
        <DataArray type="Float32" Name="elec_mobility_yy[cm2/V/s]" format="appended" RangeMin="0"                    RangeMax="0"                    offset="87792"               />
        <DataArray type="Float32" Name="elec_mobility_zz[cm2/V/s]" format="appended" RangeMin="0"                    RangeMax="0"                    offset="89084"               />
        <DataArray type="Float32" Name="elec_mobility_xy[cm2/V/s]" format="appended" RangeMin="0"                    RangeMax="0"                    offset="90376"               />
        <DataArray type="Float32" Name="elec_mobility_xz[cm2/V/s]" format="appended" RangeMin="0"                    RangeMax="0"                    offset="91668"               />
        <DataArray type="Float32" Name="elec_mobility_yz[cm2/V/s]" format="appended" RangeMin="0"                    RangeMax="0"                    offset="92960"               />
        <DataArray type="Float32" Name="hole_mobility_xx[cm2/V/s]" format="appended" RangeMin="0"                    RangeMax="0"                    offset="94252"               />
        <DataArray type="Float32" Name="hole_mobility_yy[cm2/V/s]" format="appended" RangeMin="0"                    RangeMax="0"                    offset="95544"               />
        <DataArray type="Float32" Name="hole_mobility_zz[cm2/V/s]" format="appended" RangeMin="0"                    RangeMax="0"                    offset="96836"               />
        <DataArray type="Float32" Name="hole_mobility_xy[cm2/V/s]" format="appended" RangeMin="0"                    RangeMax="0"                    offset="98128"               />
        <DataArray type="Float32" Name="hole_mobility_xz[cm2/V/s]" format="appended" RangeMin="0"                    RangeMax="0"                    offset="99420"               />
        <DataArray type="Float32" Name="hole_mobility_yz[cm2/V/s]" format="appended" RangeMin="0"                    RangeMax="0"                    offset="100712"              />
        <DataArray type="Float32" Name="elec_mobility_factor_xx" format="appended" RangeMin="0"                    RangeMax="0"                    offset="102004"              />
        <DataArray type="Float32" Name="elec_mobility_factor_yy" format="appended" RangeMin="0"                    RangeMax="0"                    offset="103296"              />
        <DataArray type="Float32" Name="elec_mobility_factor_zz" format="appended" RangeMin="0"                    RangeMax="0"                    offset="104588"              />
        <DataArray type="Float32" Name="elec_mobility_factor_xy" format="appended" RangeMin="0"                    RangeMax="0"                    offset="105880"              />
        <DataArray type="Float32" Name="elec_mobility_factor_xz" format="appended" RangeMin="0"                    RangeMax="0"                    offset="107172"              />
        <DataArray type="Float32" Name="elec_mobility_factor_yz" format="appended" RangeMin="0"                    RangeMax="0"                    offset="108464"              />
        <DataArray type="Float32" Name="hole_mobility_factor_xx" format="appended" RangeMin="0"                    RangeMax="0"                    offset="109756"              />
        <DataArray type="Float32" Name="hole_mobility_factor_yy" format="appended" RangeMin="0"                    RangeMax="0"                    offset="111048"              />
        <DataArray type="Float32" Name="hole_mobility_factor_zz" format="appended" RangeMin="0"                    RangeMax="0"                    offset="112340"              />
        <DataArray type="Float32" Name="hole_mobility_factor_xy" format="appended" RangeMin="0"                    RangeMax="0"                    offset="113632"              />
        <DataArray type="Float32" Name="hole_mobility_factor_xz" format="appended" RangeMin="0"                    RangeMax="0"                    offset="114924"              />
        <DataArray type="Float32" Name="hole_mobility_factor_yz" format="appended" RangeMin="0"                    RangeMax="0"                    offset="116216"              />
        <DataArray type="Float32" Name="strain" format="appended" RangeMin="0"                    RangeMax="0"                    offset="117508"              />
        <DataArray type="Float32" Name="dEc_BGN[eV]" format="appended" RangeMin="0"                    RangeMax="0.047896251082"       offset="118800"              />
        <DataArray type="Float32" Name="dEv_BGN[eV]" format="appended" RangeMin="0"                    RangeMax="0.047896251082"       offset="121020"              />
        <DataArray type="Float32" Name="dEc_strain[eV]" format="appended" RangeMin="0"                    RangeMax="0"                    offset="123240"              />
        <DataArray type="Float32" Name="dEv_strain[eV]" format="appended" RangeMin="0"                    RangeMax="0"                    offset="124532"              />
        <DataArray type="Float32" Name="dNc_strain" format="appended" RangeMin="0"                    RangeMax="1"                    offset="125824"              />
        <DataArray type="Float32" Name="dNv_strain" format="appended" RangeMin="0"                    RangeMax="1"                    offset="127184"              />
        <DataArray type="Float32" Name="temperature[K]" format="appended" RangeMin="300"                  RangeMax="300"                  offset="128544"              />
      </PointData>
      <CellData>
        <DataArray type="Int32" Name="region" format="appended" RangeMin="0"                    RangeMax="17"                   offset="129968"              />
        <DataArray type="Int32" Name="boundary" format="appended" RangeMin="0"                    RangeMax="57"                   offset="140072"              />
        <DataArray type="Int32" Name="partition" format="appended" RangeMin="0"                    RangeMax="0"                    offset="147736"              />
        <DataArray type="Float32" Name="electrical_field[V/cm]" NumberOfComponents="3" format="appended" RangeMin="0"                    RangeMax="0"                    offset="149308"              />
        <DataArray type="Float32" Name="elec_current[A/cm^2]" NumberOfComponents="3" format="appended" RangeMin="0"                    RangeMax="0"                    offset="153956"              />
        <DataArray type="Float32" Name="hole_current[A/cm^2]" NumberOfComponents="3" format="appended" RangeMin="0"                    RangeMax="0"                    offset="158604"              />
      </CellData>
      <Points>
        <DataArray type="Float32" Name="Points" NumberOfComponents="3" format="appended" RangeMin="0.013000000268"       RangeMax="0.11271202385"        offset="163252"              />
      </Points>
      <Cells>
        <DataArray type="Int64" Name="connectivity" format="appended" RangeMin=""                     RangeMax=""                     offset="543084"              />
        <DataArray type="Int64" Name="offsets" format="appended" RangeMin=""                     RangeMax=""                     offset="2817196"             />
        <DataArray type="UInt8" Name="types" format="appended" RangeMin=""                     RangeMax=""                     offset="3095320"             />
      </Cells>
    </Piece>
  </UnstructuredGrid>
  <AppendedData encoding="base64">