<?xml version="1.0"?>
<VTKFile type="UnstructuredGrid" version="0.1" byte_order="LittleEndian" compressor="vtkZLibDataCompressor">
<Genius xmlns="http://www.cogenda.com/xmlns/Genius/vtu/Genius/1.0">
  <mesh dimension="3" />
  <regions>
    <region id="0" name="Source" material="Si" />
    <region id="1" name="Drain" material="Si" />
    <region id="2" name="Gate" material="NPoly" />
    <region id="3" name="Channel1_HfO2" material="HfO2" />
    <region id="4" name="Channel1_SiO2" material="SiO2" />
    <region id="5" name="Channel2_HfO2" material="HfO2" />
    <region id="6" name="Channel2_SiO2" material="SiO2" />
    <region id="7" name="SPS" material="Nitride" />
    <region id="8" name="SPD" material="Nitride" />
    <region id="9" name="Source_Ext1" material="Si" />
    <region id="10" name="Channel1" material="Si" />
    <region id="11" name="Drain_Ext1" material="Si" />
    <region id="12" name="Source_Ext2" material="Si" />
    <region id="13" name="Channel2" material="Si" />
    <region id="14" name="Drain_Ext2" material="Si" />
    <region id="15" name="Source_Contact" material="Al" />
    <region id="16" name="Drain_Contact" material="Al" />
    <region id="17" name="Box" material="Ox" />
  </regions>
  <boundaries>
    <boundary id="1" name="Source_Neumann" bc="NeumannBoundary" />
    <boundary id="2" name="Drain_Neumann" bc="NeumannBoundary" />
    <boundary id="3" name="Gate_Neumann" bc="NeumannBoundary" />
    <boundary id="8" name="SPS_Neumann" bc="NeumannBoundary" />
    <boundary id="9" name="SPD_Neumann" bc="NeumannBoundary" />
    <boundary id="16" name="Source_Contact_Neumann" bc="NeumannBoundary" />
    <boundary id="17" name="Drain_Contact_Neumann" bc="NeumannBoundary" />
    <boundary id="18" name="Box_Neumann" bc="NeumannBoundary" />
    <boundary id="19" name="Box_to_Drain_Contact" bc="IF_Electrode_Insulator" />
    <boundary id="20" name="Box_to_Drain" bc="IF_Insulator_Semiconductor" />
    <boundary id="21" name="Box_to_SPD" bc="IF_Insulator_Insulator" />
    <boundary id="22" name="Box_to_Gate" bc="GateContact" />
    <boundary id="23" name="Box_to_SPS" bc="IF_Insulator_Insulator" />
    <boundary id="24" name="Box_to_Source" bc="IF_Insulator_Semiconductor" />
    <boundary id="25" name="Box_to_Source_Contact" bc="IF_Electrode_Insulator" />
    <boundary id="26" name="Drain_to_Drain_Contact" bc="OhmicContact" />
    <boundary id="27" name="Drain_to_SPD" bc="IF_Insulator_Semiconductor" />
    <boundary id="28" name="Gate_to_SPD" bc="GateContact" />
    <boundary id="29" name="Gate_to_SPS" bc="GateContact" />
    <boundary id="30" name="SPS_to_Source" bc="IF_Insulator_Semiconductor" />
    <boundary id="31" name="Source_to_Source_Contact" bc="OhmicContact" />
    <boundary id="32" name="Channel1_to_Source_Ext1" bc="HomoInterface" />
    <boundary id="33" name="Channel1_to_Channel1_SiO2" bc="IF_Insulator_Semiconductor" />
    <boundary id="34" name="Channel2_HfO2_to_Channel2_SiO2" bc="IF_Insulator_Insulator" />
    <boundary id="35" name="Channel2_to_Channel2_SiO2" bc="IF_Insulator_Semiconductor" />
    <boundary id="36" name="Channel1_HfO2_to_Channel1_SiO2" bc="IF_Insulator_Insulator" />
    <boundary id="37" name="Channel1_HfO2_to_Gate" bc="GateContact" />
    <boundary id="38" name="Channel2_HfO2_to_Gate" bc="GateContact" />
    <boundary id="39" name="SPS_to_Source_Ext2" bc="IF_Insulator_Semiconductor" />
    <boundary id="40" name="Channel1_HfO2_to_SPD" bc="IF_Insulator_Insulator" />
    <boundary id="41" name="Channel1_HfO2_to_SPS" bc="IF_Insulator_Insulator" />
    <boundary id="42" name="Channel2_HfO2_to_SPS" bc="IF_Insulator_Insulator" />
    <boundary id="43" name="Source_to_Source_Ext2" bc="HomoInterface" />
    <boundary id="44" name="Channel2_to_Source_Ext2" bc="HomoInterface" />
    <boundary id="45" name="Channel1_SiO2_to_SPD" bc="IF_Insulator_Insulator" />
    <boundary id="46" name="Drain_Ext1_to_SPD" bc="IF_Insulator_Semiconductor" />
    <boundary id="47" name="SPS_to_Source_Ext1" bc="IF_Insulator_Semiconductor" />
    <boundary id="48" name="Drain_to_Drain_Ext1" bc="HomoInterface" />
    <boundary id="49" name="Channel2_HfO2_to_SPD" bc="IF_Insulator_Insulator" />
    <boundary id="50" name="Drain_to_Drain_Ext2" bc="HomoInterface" />
    <boundary id="51" name="Drain_Ext2_to_SPD" bc="IF_Insulator_Semiconductor" />
    <boundary id="52" name="Channel2_to_Drain_Ext2" bc="HomoInterface" />
    <boundary id="53" name="Channel2_SiO2_to_SPD" bc="IF_Insulator_Insulator" />
    <boundary id="54" name="Channel2_SiO2_to_SPS" bc="IF_Insulator_Insulator" />
    <boundary id="55" name="Channel1_to_Drain_Ext1" bc="HomoInterface" />
    <boundary id="56" name="Channel1_SiO2_to_SPS" bc="IF_Insulator_Insulator" />
    <boundary id="57" name="Source_to_Source_Ext1" bc="HomoInterface" />
  </boundaries>
  <contacts>
  </contacts>
</Genius>
  <UnstructuredGrid>
    <Piece NumberOfPoints="153400"               NumberOfCells="185792"              >
      <PointData>
        <DataArray type="Float32" Name="dmin[nm]" format="appended" RangeMin="0"                    RangeMax="20"                   offset="0"                   />
        <DataArray type="Float32" Name="channel[nm]" format="appended" RangeMin="0"                    RangeMax="30"                   offset="8776"                />
        <DataArray type="Float32" Name="orientation" format="appended" RangeMin="0"                    RangeMax="100"                  offset="23276"               />
        <DataArray type="Float32" Name="potential[V]" format="appended" RangeMin="-4.9295063019"        RangeMax="-1.0700000525"        offset="24780"               />
        <DataArray type="Float32" Name="E[V/cm]" format="appended" RangeMin="0"                    RangeMax="0"                    offset="27404"               />
        <DataArray type="Float32" Name="elec_density[cm-3]" format="appended" RangeMin="0"                    RangeMax="1.9999999961e+19"     offset="28836"               />
        <DataArray type="Float32" Name="hole_density[cm-3]" format="appended" RangeMin="0"                    RangeMax="9.9999998699e+14"     offset="31068"               />
        <DataArray type="Float32" Name="Na[cm-3]" format="appended" RangeMin="0"                    RangeMax="9.9999998699e+14"     offset="33524"               />
        <DataArray type="Float32" Name="Nd[cm-3]" format="appended" RangeMin="0"                    RangeMax="1.9999999961e+19"     offset="35092"               />
        <DataArray type="Float32" Name="ActiveNa[cm-3]" format="appended" RangeMin="0"                    RangeMax="9.9999998699e+14"     offset="37272"               />
        <DataArray type="Float32" Name="ActiveNd[cm-3]" format="appended" RangeMin="0"                    RangeMax="1.9999999961e+19"     offset="38840"               />
        <DataArray type="Float32" Name="net_doping[cm-3]" format="appended" RangeMin="-9.9999998699e+14"    RangeMax="1.9999999961e+19"     offset="41020"               />
        <DataArray type="Float32" Name="net_charge[cm-3]" format="appended" RangeMin="-101.10185242"        RangeMax="11.556699753"         offset="43244"               />
        <DataArray type="Float32" Name="mole_x" format="appended" RangeMin="0"                    RangeMax="0"                    offset="45704"               />
        <DataArray type="Float32" Name="mole_y" format="appended" RangeMin="0"                    RangeMax="0"                    offset="47136"               />
        <DataArray type="Float32" Name="recombination[cm-3/s]" format="appended" RangeMin="0"                    RangeMax="0"                    offset="48568"               />
        <DataArray type="Float32" Name="recombination_dir[cm-3/s]" format="appended" RangeMin="0"                    RangeMax="0"                    offset="50000"               />
        <DataArray type="Float32" Name="recombination_srh[cm-3/s]" format="appended" RangeMin="0"                    RangeMax="0"                    offset="51432"               />
        <DataArray type="Float32" Name="recombination_auger[cm-3/s]" format="appended" RangeMin="0"                    RangeMax="0"                    offset="52864"               />
        <DataArray type="Float32" Name="elec_mobility[cm2/V/s]" format="appended" RangeMin="0"                    RangeMax="1385.3912354"         offset="54296"               />
        <DataArray type="Float32" Name="hole_mobility[cm2/V/s]" format="appended" RangeMin="0"                    RangeMax="467.4335022"          offset="56772"               />
        <DataArray type="Float32" Name="impact_ionization[cm-3/s]" format="appended" RangeMin="0"                    RangeMax="0"                    offset="59244"               />
        <DataArray type="Float32" Name="bandbandtunneling[cm-3/s]" format="appended" RangeMin="0"                    RangeMax="0"                    offset="60676"               />
        <DataArray type="Float32" Name="electron_pseudo_time[cm-3/s]" format="appended" RangeMin="0"                    RangeMax="0"                    offset="62108"               />
        <DataArray type="Float32" Name="hole_pseudo_time[cm-3/s]" format="appended" RangeMin="0"                    RangeMax="0"                    offset="63540"               />
        <DataArray type="Float32" Name="Ec[eV]" format="appended" RangeMin="-8.881784197e-16"     RangeMax="0.85676634312"        offset="64972"               />
        <DataArray type="Float32" Name="Ev[eV]" format="appended" RangeMin="-9"                   RangeMax="-8.881784197e-16"     offset="67572"               />
        <DataArray type="Float32" Name="Ec_shift[eV]" format="appended" RangeMin="0"                    RangeMax="0"                    offset="70204"               />
        <DataArray type="Float32" Name="Ev_shift[eV]" format="appended" RangeMin="0"                    RangeMax="0"                    offset="71636"               />
        <DataArray type="Float32" Name="elec_quasi_Fermi[eV]" format="appended" RangeMin="-4.5"                 RangeMax="0"                    offset="73068"               />
        <DataArray type="Float32" Name="hole_quasi_Fermi[eV]" format="appended" RangeMin="-4.5"                 RangeMax="0"                    offset="74680"               />
        <DataArray type="Float32" Name="trap_charge[cm-3]" format="appended" RangeMin="0"                    RangeMax="0"                    offset="76292"               />
        <DataArray type="Float32" Name="trap_elec_capture_rate[cm-3/s]" format="appended" RangeMin="0"                    RangeMax="0"                    offset="77724"               />
        <DataArray type="Float32" Name="trap_hole_capture_rate[cm-3/s]" format="appended" RangeMin="0"                    RangeMax="0"                    offset="79156"               />
        <DataArray type="Float32" Name="surface_trap_charge[cm-2]" format="appended" RangeMin="0"                    RangeMax="0"                    offset="80588"               />
        <DataArray type="Float32" Name="surface_trap_elec_capture_rate[cm-2/s]" format="appended" RangeMin="0"                    RangeMax="0"                    offset="82020"               />
        <DataArray type="Float32" Name="surface_trap_hole_capture_rate[cm-2/s]" format="appended" RangeMin="0"                    RangeMax="0"                    offset="83452"               />
        <DataArray type="Float32" Name="Stress[Pa]" format="appended" RangeMin="0"                    RangeMax="0"                    offset="84884"               />
        <DataArray type="Float32" Name="StressXX[Pa]" format="appended" RangeMin="0"                    RangeMax="0"                    offset="86316"               />
        <DataArray type="Float32" Name="StressXY[Pa]" format="appended" RangeMin="0"                    RangeMax="0"                    offset="87748"               />
        <DataArray type="Float32" Name="StressXZ[Pa]" format="appended" RangeMin="0"                    RangeMax="0"                    offset="89180"               />
        <DataArray type="Float32" Name="StressYY[Pa]" format="appended" RangeMin="0"                    RangeMax="0"                    offset="90612"               />
        <DataArray type="Float32" Name="StressYZ[Pa]" format="appended" RangeMin="0"                    RangeMax="0"                    offset="92044"               />
        <DataArray type="Float32" Name="StressZZ[Pa]" format="appended" RangeMin="0"                    RangeMax="0"                    offset="93476"               />
        <DataArray type="Float32" Name="elec_mobility_xx[cm2/V/s]" format="appended" RangeMin="0"                    RangeMax="0"                    offset="94908"               />
        <DataArray type="Float32" Name="elec_mobility_yy[cm2/V/s]" format="appended" RangeMin="0"                    RangeMax="0"                    offset="96340"               />
        <DataArray type="Float32" Name="elec_mobility_zz[cm2/V/s]" format="appended" RangeMin="0"                    RangeMax="0"                    offset="97772"               />
        <DataArray type="Float32" Name="elec_mobility_xy[cm2/V/s]" format="appended" RangeMin="0"                    RangeMax="0"                    offset="99204"               />
        <DataArray type="Float32" Name="elec_mobility_xz[cm2/V/s]" format="appended" RangeMin="0"                    RangeMax="0"                    offset="100636"              />
        <DataArray type="Float32" Name="elec_mobility_yz[cm2/V/s]" format="appended" RangeMin="0"                    RangeMax="0"                    offset="102068"              />
        <DataArray type="Float32" Name="hole_mobility_xx[cm2/V/s]" format="appended" RangeMin="0"                    RangeMax="0"                    offset="103500"              />
        <DataArray type="Float32" Name="hole_mobility_yy[cm2/V/s]" format="appended" RangeMin="0"                    RangeMax="0"                    offset="104932"              />
        <DataArray type="Float32" Name="hole_mobility_zz[cm2/V/s]" format="appended" RangeMin="0"                    RangeMax="0"                    offset="106364"              />
        <DataArray type="Float32" Name="hole_mobility_xy[cm2/V/s]" format="appended" RangeMin="0"                    RangeMax="0"                    offset="107796"              />
        <DataArray type="Float32" Name="hole_mobility_xz[cm2/V/s]" format="appended" RangeMin="0"                    RangeMax="0"                    offset="109228"              />
        <DataArray type="Float32" Name="hole_mobility_yz[cm2/V/s]" format="appended" RangeMin="0"                    RangeMax="0"                    offset="110660"              />
        <DataArray type="Float32" Name="elec_mobility_factor_xx" format="appended" RangeMin="0"                    RangeMax="0"                    offset="112092"              />
        <DataArray type="Float32" Name="elec_mobility_factor_yy" format="appended" RangeMin="0"                    RangeMax="0"                    offset="113524"              />
        <DataArray type="Float32" Name="elec_mobility_factor_zz" format="appended" RangeMin="0"                    RangeMax="0"                    offset="114956"              />
        <DataArray type="Float32" Name="elec_mobility_factor_xy" format="appended" RangeMin="0"                    RangeMax="0"                    offset="116388"              />
        <DataArray type="Float32" Name="elec_mobility_factor_xz" format="appended" RangeMin="0"                    RangeMax="0"                    offset="117820"              />
        <DataArray type="Float32" Name="elec_mobility_factor_yz" format="appended" RangeMin="0"                    RangeMax="0"                    offset="119252"              />
        <DataArray type="Float32" Name="hole_mobility_factor_xx" format="appended" RangeMin="0"                    RangeMax="0"                    offset="120684"              />
        <DataArray type="Float32" Name="hole_mobility_factor_yy" format="appended" RangeMin="0"                    RangeMax="0"                    offset="122116"              />
        <DataArray type="Float32" Name="hole_mobility_factor_zz" format="appended" RangeMin="0"                    RangeMax="0"                    offset="123548"              />
        <DataArray type="Float32" Name="hole_mobility_factor_xy" format="appended" RangeMin="0"                    RangeMax="0"                    offset="124980"              />
        <DataArray type="Float32" Name="hole_mobility_factor_xz" format="appended" RangeMin="0"                    RangeMax="0"                    offset="126412"              />
        <DataArray type="Float32" Name="hole_mobility_factor_yz" format="appended" RangeMin="0"                    RangeMax="0"                    offset="127844"              />
        <DataArray type="Float32" Name="strain" format="appended" RangeMin="0"                    RangeMax="0"                    offset="129276"              />
        <DataArray type="Float32" Name="dEc_BGN[eV]" format="appended" RangeMin="0"                    RangeMax="0.047896251082"       offset="130708"              />
        <DataArray type="Float32" Name="dEv_BGN[eV]" format="appended" RangeMin="0"                    RangeMax="0.047896251082"       offset="133192"              />
        <DataArray type="Float32" Name="dEc_strain[eV]" format="appended" RangeMin="0"                    RangeMax="0"                    offset="135676"              />
        <DataArray type="Float32" Name="dEv_strain[eV]" format="appended" RangeMin="0"                    RangeMax="0"                    offset="137108"              />
        <DataArray type="Float32" Name="dNc_strain" format="appended" RangeMin="0"                    RangeMax="1"                    offset="138540"              />
        <DataArray type="Float32" Name="dNv_strain" format="appended" RangeMin="0"                    RangeMax="1"                    offset="140044"              />
        <DataArray type="Float32" Name="temperature[K]" format="appended" RangeMin="300"                  RangeMax="300"                  offset="141548"              />
      </PointData>
      <CellData>
        <DataArray type="Int32" Name="region" format="appended" RangeMin="0"                    RangeMax="17"                   offset="143128"              />
        <DataArray type="Int32" Name="boundary" format="appended" RangeMin="0"                    RangeMax="57"                   offset="153836"              />
        <DataArray type="Int32" Name="partition" format="appended" RangeMin="0"                    RangeMax="0"                    offset="161884"              />
        <DataArray type="Float32" Name="electrical_field[V/cm]" NumberOfComponents="3" format="appended" RangeMin="0"                    RangeMax="0"                    offset="163608"              />
        <DataArray type="Float32" Name="elec_current[A/cm^2]" NumberOfComponents="3" format="appended" RangeMin="0"                    RangeMax="0"                    offset="168732"              />
        <DataArray type="Float32" Name="hole_current[A/cm^2]" NumberOfComponents="3" format="appended" RangeMin="0"                    RangeMax="0"                    offset="173856"              />
      </CellData>
      <Points>
        <DataArray type="Float32" Name="Points" NumberOfComponents="3" format="appended" RangeMin="0.013000000268"       RangeMax="0.11447270588"        offset="178980"              />
      </Points>
      <Cells>
        <DataArray type="Int64" Name="connectivity" format="appended" RangeMin=""                     RangeMax=""                     offset="600824"              />
        <DataArray type="Int64" Name="offsets" format="appended" RangeMin=""                     RangeMax=""                     offset="3095740"             />
        <DataArray type="UInt8" Name="types" format="appended" RangeMin=""                     RangeMax=""                     offset="3401112"             />
      </Cells>
    </Piece>
  </UnstructuredGrid>
  <AppendedData encoding="base64">