<?xml version="1.0"?>
<VTKFile type="UnstructuredGrid" version="0.1" byte_order="LittleEndian" compressor="vtkZLibDataCompressor">
<Genius xmlns="http://www.cogenda.com/xmlns/Genius/vtu/Genius/1.0">
  <mesh dimension="3" />
  <regions>
    <region id="0" name="Source" material="Si" />
    <region id="1" name="Drain" material="Si" />
    <region id="2" name="Gate" material="NPoly" />
    <region id="3" name="CHannel1_Ox1" material="HfO2" />
    <region id="4" name="CHannel1_Ox2" material="SiO2" />
    <region id="5" name="CHannel2_Ox1" material="HfO2" />
    <region id="6" name="CHannel2_Ox2" material="SiO2" />
    <region id="7" name="SPS" material="Nitride" />
    <region id="8" name="SPD" material="Nitride" />
    <region id="9" name="Source_EXT1" material="Si" />
    <region id="10" name="Mid_Channel1" material="Si" />
    <region id="11" name="Drain_EXT1" material="Si" />
    <region id="12" name="Source_EXT2" material="Si" />
    <region id="13" name="Mid_Channel2" material="Si" />
    <region id="14" name="Drain_EXT2" material="Si" />
    <region id="15" name="Source_contact" material="Al" />
    <region id="16" name="Drain_contact" material="Al" />
    <region id="17" name="Box" material="Ox" />
  </regions>
  <boundaries>
    <boundary id="1" name="Source_Neumann" bc="NeumannBoundary" />
    <boundary id="2" name="Drain_Neumann" bc="NeumannBoundary" />
    <boundary id="3" name="Gate_Neumann" bc="NeumannBoundary" />
    <boundary id="8" name="SPS_Neumann" bc="NeumannBoundary" />
    <boundary id="9" name="SPD_Neumann" bc="NeumannBoundary" />
    <boundary id="16" name="Source_contact_Neumann" bc="NeumannBoundary" />
    <boundary id="17" name="Drain_contact_Neumann" bc="NeumannBoundary" />
    <boundary id="18" name="Box_Neumann" bc="NeumannBoundary" />
    <boundary id="19" name="Box_to_Drain" bc="IF_Insulator_Semiconductor" />
    <boundary id="20" name="Box_to_SPD" bc="IF_Insulator_Insulator" />
    <boundary id="21" name="Box_to_Gate" bc="GateContact" />
    <boundary id="22" name="Box_to_SPS" bc="IF_Insulator_Insulator" />
    <boundary id="23" name="Box_to_Source" bc="IF_Insulator_Semiconductor" />
    <boundary id="24" name="Box_to_Source_contact" bc="IF_Electrode_Insulator" />
    <boundary id="25" name="Drain_to_Drain_contact" bc="OhmicContact" />
    <boundary id="26" name="Box_to_Drain_contact" bc="IF_Electrode_Insulator" />
    <boundary id="27" name="Drain_to_SPD" bc="IF_Insulator_Semiconductor" />
    <boundary id="28" name="Gate_to_SPD" bc="GateContact" />
    <boundary id="29" name="SPS_to_Source" bc="IF_Insulator_Semiconductor" />
    <boundary id="30" name="Source_to_Source_contact" bc="OhmicContact" />
    <boundary id="31" name="Gate_to_SPS" bc="GateContact" />
    <boundary id="32" name="Drain_EXT2_to_SPD" bc="IF_Insulator_Semiconductor" />
    <boundary id="33" name="CHannel1_Ox1_to_Gate" bc="GateContact" />
    <boundary id="34" name="CHannel2_Ox2_to_Mid_Channel2" bc="IF_Insulator_Semiconductor" />
    <boundary id="35" name="CHannel2_Ox1_to_CHannel2_Ox2" bc="IF_Insulator_Insulator" />
    <boundary id="36" name="Drain_EXT2_to_Mid_Channel2" bc="HomoInterface" />
    <boundary id="37" name="SPS_to_Source_EXT2" bc="IF_Insulator_Semiconductor" />
    <boundary id="38" name="CHannel2_Ox1_to_SPD" bc="IF_Insulator_Insulator" />
    <boundary id="39" name="CHannel2_Ox1_to_Gate" bc="GateContact" />
    <boundary id="40" name="Mid_Channel1_to_Source_EXT1" bc="HomoInterface" />
    <boundary id="41" name="SPS_to_Source_EXT1" bc="IF_Insulator_Semiconductor" />
    <boundary id="42" name="CHannel1_Ox2_to_Mid_Channel1" bc="IF_Insulator_Semiconductor" />
    <boundary id="43" name="Drain_to_Drain_EXT2" bc="HomoInterface" />
    <boundary id="44" name="Drain_to_Drain_EXT1" bc="HomoInterface" />
    <boundary id="45" name="Drain_EXT1_to_SPD" bc="IF_Insulator_Semiconductor" />
    <boundary id="46" name="Drain_EXT1_to_Mid_Channel1" bc="HomoInterface" />
    <boundary id="47" name="CHannel1_Ox1_to_SPD" bc="IF_Insulator_Insulator" />
    <boundary id="48" name="CHannel1_Ox1_to_SPS" bc="IF_Insulator_Insulator" />
    <boundary id="49" name="CHannel1_Ox1_to_CHannel1_Ox2" bc="IF_Insulator_Insulator" />
    <boundary id="50" name="Source_to_Source_EXT1" bc="HomoInterface" />
    <boundary id="51" name="CHannel2_Ox1_to_SPS" bc="IF_Insulator_Insulator" />
    <boundary id="52" name="CHannel1_Ox2_to_SPS" bc="IF_Insulator_Insulator" />
    <boundary id="53" name="CHannel2_Ox2_to_SPD" bc="IF_Insulator_Insulator" />
    <boundary id="54" name="Source_to_Source_EXT2" bc="HomoInterface" />
    <boundary id="55" name="CHannel1_Ox2_to_SPD" bc="IF_Insulator_Insulator" />
    <boundary id="56" name="CHannel2_Ox2_to_SPS" bc="IF_Insulator_Insulator" />
    <boundary id="57" name="Mid_Channel2_to_Source_EXT2" bc="HomoInterface" />
  </boundaries>
  <contacts>
  </contacts>
</Genius>
  <UnstructuredGrid>
    <Piece NumberOfPoints="135340"               NumberOfCells="166832"              >
      <PointData>
        <DataArray type="Float32" Name="dmin[nm]" format="appended" RangeMin="0"                    RangeMax="20"                   offset="0"                   />
        <DataArray type="Float32" Name="channel[nm]" format="appended" RangeMin="0"                    RangeMax="30"                   offset="6748"                />
        <DataArray type="Float32" Name="orientation" format="appended" RangeMin="0"                    RangeMax="100"                  offset="16696"               />
        <DataArray type="Float32" Name="potential[V]" format="appended" RangeMin="-4.25"                RangeMax="-1.0700000525"        offset="18028"               />
        <DataArray type="Float32" Name="E[V/cm]" format="appended" RangeMin="0"                    RangeMax="0"                    offset="20316"               />
        <DataArray type="Float32" Name="elec_density[cm-3]" format="appended" RangeMin="0"                    RangeMax="1.9999999961e+19"     offset="21588"               />
        <DataArray type="Float32" Name="hole_density[cm-3]" format="appended" RangeMin="0"                    RangeMax="11.556699753"         offset="23520"               />
        <DataArray type="Float32" Name="Na[cm-3]" format="appended" RangeMin="0"                    RangeMax="0"                    offset="25616"               />
        <DataArray type="Float32" Name="Nd[cm-3]" format="appended" RangeMin="0"                    RangeMax="1.9999999961e+19"     offset="26888"               />
        <DataArray type="Float32" Name="ActiveNa[cm-3]" format="appended" RangeMin="0"                    RangeMax="0"                    offset="28820"               />
        <DataArray type="Float32" Name="ActiveNd[cm-3]" format="appended" RangeMin="0"                    RangeMax="1.9999999961e+19"     offset="30092"               />
        <DataArray type="Float32" Name="net_doping[cm-3]" format="appended" RangeMin="0"                    RangeMax="1.9999999961e+19"     offset="32024"               />
        <DataArray type="Float32" Name="net_charge[cm-3]" format="appended" RangeMin="0"                    RangeMax="11.556699753"         offset="33956"               />
        <DataArray type="Float32" Name="mole_x" format="appended" RangeMin="0"                    RangeMax="0"                    offset="36052"               />
        <DataArray type="Float32" Name="mole_y" format="appended" RangeMin="0"                    RangeMax="0"                    offset="37324"               />
        <DataArray type="Float32" Name="recombination[cm-3/s]" format="appended" RangeMin="0"                    RangeMax="0"                    offset="38596"               />
        <DataArray type="Float32" Name="recombination_dir[cm-3/s]" format="appended" RangeMin="0"                    RangeMax="0"                    offset="39868"               />
        <DataArray type="Float32" Name="recombination_srh[cm-3/s]" format="appended" RangeMin="0"                    RangeMax="0"                    offset="41140"               />
        <DataArray type="Float32" Name="recombination_auger[cm-3/s]" format="appended" RangeMin="0"                    RangeMax="0"                    offset="42412"               />
        <DataArray type="Float32" Name="elec_mobility[cm2/V/s]" format="appended" RangeMin="0"                    RangeMax="103.59766388"         offset="43684"               />
        <DataArray type="Float32" Name="hole_mobility[cm2/V/s]" format="appended" RangeMin="0"                    RangeMax="72.279426575"         offset="45808"               />
        <DataArray type="Float32" Name="impact_ionization[cm-3/s]" format="appended" RangeMin="0"                    RangeMax="0"                    offset="47928"               />
        <DataArray type="Float32" Name="bandbandtunneling[cm-3/s]" format="appended" RangeMin="0"                    RangeMax="0"                    offset="49200"               />
        <DataArray type="Float32" Name="electron_pseudo_time[cm-3/s]" format="appended" RangeMin="0"                    RangeMax="0"                    offset="50472"               />
        <DataArray type="Float32" Name="hole_pseudo_time[cm-3/s]" format="appended" RangeMin="0"                    RangeMax="0"                    offset="51744"               />
        <DataArray type="Float32" Name="Ec[eV]" format="appended" RangeMin="-8.881784197e-16"     RangeMax="0.027135707438"       offset="53016"               />
        <DataArray type="Float32" Name="Ev[eV]" format="appended" RangeMin="-9"                   RangeMax="-8.881784197e-16"     offset="55260"               />
        <DataArray type="Float32" Name="Ec_shift[eV]" format="appended" RangeMin="0"                    RangeMax="0"                    offset="57540"               />
        <DataArray type="Float32" Name="Ev_shift[eV]" format="appended" RangeMin="0"                    RangeMax="0"                    offset="58812"               />
        <DataArray type="Float32" Name="elec_quasi_Fermi[eV]" format="appended" RangeMin="-4.5"                 RangeMax="0"                    offset="60084"               />
        <DataArray type="Float32" Name="hole_quasi_Fermi[eV]" format="appended" RangeMin="-4.5"                 RangeMax="0"                    offset="61540"               />
        <DataArray type="Float32" Name="trap_charge[cm-3]" format="appended" RangeMin="0"                    RangeMax="0"                    offset="62996"               />
        <DataArray type="Float32" Name="trap_elec_capture_rate[cm-3/s]" format="appended" RangeMin="0"                    RangeMax="0"                    offset="64268"               />
        <DataArray type="Float32" Name="trap_hole_capture_rate[cm-3/s]" format="appended" RangeMin="0"                    RangeMax="0"                    offset="65540"               />
        <DataArray type="Float32" Name="surface_trap_charge[cm-2]" format="appended" RangeMin="0"                    RangeMax="0"                    offset="66812"               />
        <DataArray type="Float32" Name="surface_trap_elec_capture_rate[cm-2/s]" format="appended" RangeMin="0"                    RangeMax="0"                    offset="68084"               />
        <DataArray type="Float32" Name="surface_trap_hole_capture_rate[cm-2/s]" format="appended" RangeMin="0"                    RangeMax="0"                    offset="69356"               />
        <DataArray type="Float32" Name="Stress[Pa]" format="appended" RangeMin="0"                    RangeMax="0"                    offset="70628"               />
        <DataArray type="Float32" Name="StressXX[Pa]" format="appended" RangeMin="0"                    RangeMax="0"                    offset="71900"               />
        <DataArray type="Float32" Name="StressXY[Pa]" format="appended" RangeMin="0"                    RangeMax="0"                    offset="73172"               />
        <DataArray type="Float32" Name="StressXZ[Pa]" format="appended" RangeMin="0"                    RangeMax="0"                    offset="74444"               />
        <DataArray type="Float32" Name="StressYY[Pa]" format="appended" RangeMin="0"                    RangeMax="0"                    offset="75716"               />
        <DataArray type="Float32" Name="StressYZ[Pa]" format="appended" RangeMin="0"                    RangeMax="0"                    offset="76988"               />
        <DataArray type="Float32" Name="StressZZ[Pa]" format="appended" RangeMin="0"                    RangeMax="0"                    offset="78260"               />
        <DataArray type="Float32" Name="elec_mobility_xx[cm2/V/s]" format="appended" RangeMin="0"                    RangeMax="0"                    offset="79532"               />
        <DataArray type="Float32" Name="elec_mobility_yy[cm2/V/s]" format="appended" RangeMin="0"                    RangeMax="0"                    offset="80804"               />
        <DataArray type="Float32" Name="elec_mobility_zz[cm2/V/s]" format="appended" RangeMin="0"                    RangeMax="0"                    offset="82076"               />
        <DataArray type="Float32" Name="elec_mobility_xy[cm2/V/s]" format="appended" RangeMin="0"                    RangeMax="0"                    offset="83348"               />
        <DataArray type="Float32" Name="elec_mobility_xz[cm2/V/s]" format="appended" RangeMin="0"                    RangeMax="0"                    offset="84620"               />
        <DataArray type="Float32" Name="elec_mobility_yz[cm2/V/s]" format="appended" RangeMin="0"                    RangeMax="0"                    offset="85892"               />
        <DataArray type="Float32" Name="hole_mobility_xx[cm2/V/s]" format="appended" RangeMin="0"                    RangeMax="0"                    offset="87164"               />
        <DataArray type="Float32" Name="hole_mobility_yy[cm2/V/s]" format="appended" RangeMin="0"                    RangeMax="0"                    offset="88436"               />
        <DataArray type="Float32" Name="hole_mobility_zz[cm2/V/s]" format="appended" RangeMin="0"                    RangeMax="0"                    offset="89708"               />
        <DataArray type="Float32" Name="hole_mobility_xy[cm2/V/s]" format="appended" RangeMin="0"                    RangeMax="0"                    offset="90980"               />
        <DataArray type="Float32" Name="hole_mobility_xz[cm2/V/s]" format="appended" RangeMin="0"                    RangeMax="0"                    offset="92252"               />
        <DataArray type="Float32" Name="hole_mobility_yz[cm2/V/s]" format="appended" RangeMin="0"                    RangeMax="0"                    offset="93524"               />
        <DataArray type="Float32" Name="elec_mobility_factor_xx" format="appended" RangeMin="0"                    RangeMax="0"                    offset="94796"               />
        <DataArray type="Float32" Name="elec_mobility_factor_yy" format="appended" RangeMin="0"                    RangeMax="0"                    offset="96068"               />
        <DataArray type="Float32" Name="elec_mobility_factor_zz" format="appended" RangeMin="0"                    RangeMax="0"                    offset="97340"               />
        <DataArray type="Float32" Name="elec_mobility_factor_xy" format="appended" RangeMin="0"                    RangeMax="0"                    offset="98612"               />
        <DataArray type="Float32" Name="elec_mobility_factor_xz" format="appended" RangeMin="0"                    RangeMax="0"                    offset="99884"               />
        <DataArray type="Float32" Name="elec_mobility_factor_yz" format="appended" RangeMin="0"                    RangeMax="0"                    offset="101156"              />
        <DataArray type="Float32" Name="hole_mobility_factor_xx" format="appended" RangeMin="0"                    RangeMax="0"                    offset="102428"              />
        <DataArray type="Float32" Name="hole_mobility_factor_yy" format="appended" RangeMin="0"                    RangeMax="0"                    offset="103700"              />
        <DataArray type="Float32" Name="hole_mobility_factor_zz" format="appended" RangeMin="0"                    RangeMax="0"                    offset="104972"              />
        <DataArray type="Float32" Name="hole_mobility_factor_xy" format="appended" RangeMin="0"                    RangeMax="0"                    offset="106244"              />
        <DataArray type="Float32" Name="hole_mobility_factor_xz" format="appended" RangeMin="0"                    RangeMax="0"                    offset="107516"              />
        <DataArray type="Float32" Name="hole_mobility_factor_yz" format="appended" RangeMin="0"                    RangeMax="0"                    offset="108788"              />
        <DataArray type="Float32" Name="strain" format="appended" RangeMin="0"                    RangeMax="0"                    offset="110060"              />
        <DataArray type="Float32" Name="dEc_BGN[eV]" format="appended" RangeMin="0"                    RangeMax="0.047896251082"       offset="111332"              />
        <DataArray type="Float32" Name="dEv_BGN[eV]" format="appended" RangeMin="0"                    RangeMax="0.047896251082"       offset="113464"              />
        <DataArray type="Float32" Name="dEc_strain[eV]" format="appended" RangeMin="0"                    RangeMax="0"                    offset="115596"              />
        <DataArray type="Float32" Name="dEv_strain[eV]" format="appended" RangeMin="0"                    RangeMax="0"                    offset="116868"              />
        <DataArray type="Float32" Name="dNc_strain" format="appended" RangeMin="0"                    RangeMax="1"                    offset="118140"              />
        <DataArray type="Float32" Name="dNv_strain" format="appended" RangeMin="0"                    RangeMax="1"                    offset="119472"              />
        <DataArray type="Float32" Name="temperature[K]" format="appended" RangeMin="300"                  RangeMax="300"                  offset="120804"              />
      </PointData>
      <CellData>
        <DataArray type="Int32" Name="region" format="appended" RangeMin="0"                    RangeMax="17"                   offset="122208"              />
        <DataArray type="Int32" Name="boundary" format="appended" RangeMin="0"                    RangeMax="57"                   offset="132256"              />
        <DataArray type="Int32" Name="partition" format="appended" RangeMin="0"                    RangeMax="0"                    offset="140004"              />
        <DataArray type="Float32" Name="electrical_field[V/cm]" NumberOfComponents="3" format="appended" RangeMin="0"                    RangeMax="0"                    offset="141564"              />
        <DataArray type="Float32" Name="elec_current[A/cm^2]" NumberOfComponents="3" format="appended" RangeMin="0"                    RangeMax="0"                    offset="146176"              />
        <DataArray type="Float32" Name="hole_current[A/cm^2]" NumberOfComponents="3" format="appended" RangeMin="0"                    RangeMax="0"                    offset="150788"              />
      </CellData>
      <Points>
        <DataArray type="Float32" Name="Points" NumberOfComponents="3" format="appended" RangeMin="0.013000000268"       RangeMax="0.11447270588"        offset="155400"              />
      </Points>
      <Cells>
        <DataArray type="Int64" Name="connectivity" format="appended" RangeMin=""                     RangeMax=""                     offset="519312"              />
        <DataArray type="Int64" Name="offsets" format="appended" RangeMin=""                     RangeMax=""                     offset="2743132"             />
        <DataArray type="UInt8" Name="types" format="appended" RangeMin=""                     RangeMax=""                     offset="3018120"             />
      </Cells>
    </Piece>
  </UnstructuredGrid>
  <AppendedData encoding="base64">