<?xml version="1.0"?>
<VTKFile type="UnstructuredGrid" version="0.1" byte_order="LittleEndian" compressor="vtkZLibDataCompressor">
<Genius xmlns="http://www.cogenda.com/xmlns/Genius/vtu/Genius/1.0">
  <mesh dimension="3" />
  <regions>
    <region id="0" name="Source" material="Si" />
    <region id="1" name="Drain" material="Si" />
    <region id="2" name="Gate" material="NPoly" />
    <region id="3" name="CHannel1_Ox1" material="HfO2" />
    <region id="4" name="CHannel1_Ox2" material="SiO2" />
    <region id="5" name="CHannel2_Ox1" material="HfO2" />
    <region id="6" name="CHannel2_Ox2" material="SiO2" />
    <region id="7" name="SPS" material="Nitride" />
    <region id="8" name="SPD" material="Nitride" />
    <region id="9" name="Source_EXT1" material="Si" />
    <region id="10" name="Channel1" material="Si" />
    <region id="11" name="Drain_EXT1" material="Si" />
    <region id="12" name="Source_EXT2" material="Si" />
    <region id="13" name="Channel2" material="Si" />
    <region id="14" name="Drain_EXT2" material="Si" />
    <region id="15" name="Source_contact" material="Al" />
    <region id="16" name="Drain_contact" material="Al" />
    <region id="17" name="Box" material="Ox" />
  </regions>
  <boundaries>
    <boundary id="1" name="Source_Neumann" bc="NeumannBoundary" />
    <boundary id="2" name="Drain_Neumann" bc="NeumannBoundary" />
    <boundary id="3" name="Gate_Neumann" bc="NeumannBoundary" />
    <boundary id="8" name="SPS_Neumann" bc="NeumannBoundary" />
    <boundary id="9" name="SPD_Neumann" bc="NeumannBoundary" />
    <boundary id="16" name="Source_contact_Neumann" bc="NeumannBoundary" />
    <boundary id="17" name="Drain_contact_Neumann" bc="NeumannBoundary" />
    <boundary id="18" name="Box_Neumann" bc="NeumannBoundary" />
    <boundary id="19" name="Box_to_Drain_contact" bc="IF_Electrode_Insulator" />
    <boundary id="20" name="Box_to_Drain" bc="IF_Insulator_Semiconductor" />
    <boundary id="21" name="Box_to_SPD" bc="IF_Insulator_Insulator" />
    <boundary id="22" name="Box_to_Gate" bc="GateContact" />
    <boundary id="23" name="Box_to_SPS" bc="IF_Insulator_Insulator" />
    <boundary id="24" name="Box_to_Source" bc="IF_Insulator_Semiconductor" />
    <boundary id="25" name="Drain_to_Drain_contact" bc="OhmicContact" />
    <boundary id="26" name="Drain_to_SPD" bc="IF_Insulator_Semiconductor" />
    <boundary id="27" name="Gate_to_SPD" bc="GateContact" />
    <boundary id="28" name="Gate_to_SPS" bc="GateContact" />
    <boundary id="29" name="SPS_to_Source" bc="IF_Insulator_Semiconductor" />
    <boundary id="30" name="Source_to_Source_contact" bc="OhmicContact" />
    <boundary id="31" name="Box_to_Source_contact" bc="IF_Electrode_Insulator" />
    <boundary id="32" name="CHannel2_Ox1_to_Gate" bc="GateContact" />
    <boundary id="33" name="CHannel1_Ox1_to_Gate" bc="GateContact" />
    <boundary id="34" name="CHannel2_Ox1_to_SPD" bc="IF_Insulator_Insulator" />
    <boundary id="35" name="CHannel2_Ox1_to_SPS" bc="IF_Insulator_Insulator" />
    <boundary id="36" name="CHannel1_Ox1_to_SPS" bc="IF_Insulator_Insulator" />
    <boundary id="37" name="CHannel1_Ox1_to_SPD" bc="IF_Insulator_Insulator" />
    <boundary id="38" name="Drain_EXT2_to_SPD" bc="IF_Insulator_Semiconductor" />
    <boundary id="39" name="CHannel2_Ox2_to_Channel2" bc="IF_Insulator_Semiconductor" />
    <boundary id="40" name="CHannel2_Ox1_to_CHannel2_Ox2" bc="IF_Insulator_Insulator" />
    <boundary id="41" name="Channel1_to_Source_EXT1" bc="HomoInterface" />
    <boundary id="42" name="SPS_to_Source_EXT1" bc="IF_Insulator_Semiconductor" />
    <boundary id="43" name="CHannel1_Ox1_to_CHannel1_Ox2" bc="IF_Insulator_Insulator" />
    <boundary id="44" name="CHannel1_Ox2_to_Channel1" bc="IF_Insulator_Semiconductor" />
    <boundary id="45" name="Drain_to_Drain_EXT1" bc="HomoInterface" />
    <boundary id="46" name="Drain_EXT1_to_SPD" bc="IF_Insulator_Semiconductor" />
    <boundary id="47" name="Channel1_to_Drain_EXT1" bc="HomoInterface" />
    <boundary id="48" name="CHannel1_Ox2_to_SPD" bc="IF_Insulator_Insulator" />
    <boundary id="49" name="Source_to_Source_EXT1" bc="HomoInterface" />
    <boundary id="50" name="Drain_to_Drain_EXT2" bc="HomoInterface" />
    <boundary id="51" name="CHannel1_Ox2_to_SPS" bc="IF_Insulator_Insulator" />
    <boundary id="52" name="CHannel2_Ox2_to_SPD" bc="IF_Insulator_Insulator" />
    <boundary id="53" name="SPS_to_Source_EXT2" bc="IF_Insulator_Semiconductor" />
    <boundary id="54" name="Channel2_to_Drain_EXT2" bc="HomoInterface" />
    <boundary id="55" name="Source_to_Source_EXT2" bc="HomoInterface" />
    <boundary id="56" name="CHannel2_Ox2_to_SPS" bc="IF_Insulator_Insulator" />
    <boundary id="57" name="Channel2_to_Source_EXT2" bc="HomoInterface" />
  </boundaries>
  <contacts>
  </contacts>
</Genius>
  <UnstructuredGrid>
    <Piece NumberOfPoints="150796"               NumberOfCells="185680"              >
      <PointData>
        <DataArray type="Float32" Name="dmin[nm]" format="appended" RangeMin="0"                    RangeMax="20"                   offset="0"                   />
        <DataArray type="Float32" Name="channel[nm]" format="appended" RangeMin="0"                    RangeMax="30"                   offset="7572"                />
        <DataArray type="Float32" Name="orientation" format="appended" RangeMin="0"                    RangeMax="100"                  offset="18548"               />
        <DataArray type="Float32" Name="potential[V]" format="appended" RangeMin="-4.25"                RangeMax="-1.0700000525"        offset="20028"               />
        <DataArray type="Float32" Name="E[V/cm]" format="appended" RangeMin="0"                    RangeMax="0"                    offset="22584"               />
        <DataArray type="Float32" Name="elec_density[cm-3]" format="appended" RangeMin="0"                    RangeMax="1.9999999961e+19"     offset="24000"               />
        <DataArray type="Float32" Name="hole_density[cm-3]" format="appended" RangeMin="0"                    RangeMax="11.556699753"         offset="26144"               />
        <DataArray type="Float32" Name="Na[cm-3]" format="appended" RangeMin="0"                    RangeMax="0"                    offset="28484"               />
        <DataArray type="Float32" Name="Nd[cm-3]" format="appended" RangeMin="0"                    RangeMax="1.9999999961e+19"     offset="29900"               />
        <DataArray type="Float32" Name="ActiveNa[cm-3]" format="appended" RangeMin="0"                    RangeMax="0"                    offset="32044"               />
        <DataArray type="Float32" Name="ActiveNd[cm-3]" format="appended" RangeMin="0"                    RangeMax="1.9999999961e+19"     offset="33460"               />
        <DataArray type="Float32" Name="net_doping[cm-3]" format="appended" RangeMin="0"                    RangeMax="1.9999999961e+19"     offset="35604"               />
        <DataArray type="Float32" Name="net_charge[cm-3]" format="appended" RangeMin="0"                    RangeMax="11.556699753"         offset="37748"               />
        <DataArray type="Float32" Name="mole_x" format="appended" RangeMin="0"                    RangeMax="0"                    offset="40088"               />
        <DataArray type="Float32" Name="mole_y" format="appended" RangeMin="0"                    RangeMax="0"                    offset="41504"               />
        <DataArray type="Float32" Name="recombination[cm-3/s]" format="appended" RangeMin="0"                    RangeMax="0"                    offset="42920"               />
        <DataArray type="Float32" Name="recombination_dir[cm-3/s]" format="appended" RangeMin="0"                    RangeMax="0"                    offset="44336"               />
        <DataArray type="Float32" Name="recombination_srh[cm-3/s]" format="appended" RangeMin="0"                    RangeMax="0"                    offset="45752"               />
        <DataArray type="Float32" Name="recombination_auger[cm-3/s]" format="appended" RangeMin="0"                    RangeMax="0"                    offset="47168"               />
        <DataArray type="Float32" Name="elec_mobility[cm2/V/s]" format="appended" RangeMin="0"                    RangeMax="103.59766388"         offset="48584"               />
        <DataArray type="Float32" Name="hole_mobility[cm2/V/s]" format="appended" RangeMin="0"                    RangeMax="72.279426575"         offset="50952"               />
        <DataArray type="Float32" Name="impact_ionization[cm-3/s]" format="appended" RangeMin="0"                    RangeMax="0"                    offset="53312"               />
        <DataArray type="Float32" Name="bandbandtunneling[cm-3/s]" format="appended" RangeMin="0"                    RangeMax="0"                    offset="54728"               />
        <DataArray type="Float32" Name="electron_pseudo_time[cm-3/s]" format="appended" RangeMin="0"                    RangeMax="0"                    offset="56144"               />
        <DataArray type="Float32" Name="hole_pseudo_time[cm-3/s]" format="appended" RangeMin="0"                    RangeMax="0"                    offset="57560"               />
        <DataArray type="Float32" Name="Ec[eV]" format="appended" RangeMin="-8.881784197e-16"     RangeMax="0.027135707438"       offset="58976"               />
        <DataArray type="Float32" Name="Ev[eV]" format="appended" RangeMin="-9"                   RangeMax="-8.881784197e-16"     offset="61484"               />
        <DataArray type="Float32" Name="Ec_shift[eV]" format="appended" RangeMin="0"                    RangeMax="0"                    offset="64032"               />
        <DataArray type="Float32" Name="Ev_shift[eV]" format="appended" RangeMin="0"                    RangeMax="0"                    offset="65448"               />
        <DataArray type="Float32" Name="elec_quasi_Fermi[eV]" format="appended" RangeMin="-4.5"                 RangeMax="0"                    offset="66864"               />
        <DataArray type="Float32" Name="hole_quasi_Fermi[eV]" format="appended" RangeMin="-4.5"                 RangeMax="0"                    offset="68476"               />
        <DataArray type="Float32" Name="trap_charge[cm-3]" format="appended" RangeMin="0"                    RangeMax="0"                    offset="70088"               />
        <DataArray type="Float32" Name="trap_elec_capture_rate[cm-3/s]" format="appended" RangeMin="0"                    RangeMax="0"                    offset="71504"               />
        <DataArray type="Float32" Name="trap_hole_capture_rate[cm-3/s]" format="appended" RangeMin="0"                    RangeMax="0"                    offset="72920"               />
        <DataArray type="Float32" Name="surface_trap_charge[cm-2]" format="appended" RangeMin="0"                    RangeMax="0"                    offset="74336"               />
        <DataArray type="Float32" Name="surface_trap_elec_capture_rate[cm-2/s]" format="appended" RangeMin="0"                    RangeMax="0"                    offset="75752"               />
        <DataArray type="Float32" Name="surface_trap_hole_capture_rate[cm-2/s]" format="appended" RangeMin="0"                    RangeMax="0"                    offset="77168"               />
        <DataArray type="Float32" Name="Stress[Pa]" format="appended" RangeMin="0"                    RangeMax="0"                    offset="78584"               />
        <DataArray type="Float32" Name="StressXX[Pa]" format="appended" RangeMin="0"                    RangeMax="0"                    offset="80000"               />
        <DataArray type="Float32" Name="StressXY[Pa]" format="appended" RangeMin="0"                    RangeMax="0"                    offset="81416"               />
        <DataArray type="Float32" Name="StressXZ[Pa]" format="appended" RangeMin="0"                    RangeMax="0"                    offset="82832"               />
        <DataArray type="Float32" Name="StressYY[Pa]" format="appended" RangeMin="0"                    RangeMax="0"                    offset="84248"               />
        <DataArray type="Float32" Name="StressYZ[Pa]" format="appended" RangeMin="0"                    RangeMax="0"                    offset="85664"               />
        <DataArray type="Float32" Name="StressZZ[Pa]" format="appended" RangeMin="0"                    RangeMax="0"                    offset="87080"               />
        <DataArray type="Float32" Name="elec_mobility_xx[cm2/V/s]" format="appended" RangeMin="0"                    RangeMax="0"                    offset="88496"               />
        <DataArray type="Float32" Name="elec_mobility_yy[cm2/V/s]" format="appended" RangeMin="0"                    RangeMax="0"                    offset="89912"               />
        <DataArray type="Float32" Name="elec_mobility_zz[cm2/V/s]" format="appended" RangeMin="0"                    RangeMax="0"                    offset="91328"               />
        <DataArray type="Float32" Name="elec_mobility_xy[cm2/V/s]" format="appended" RangeMin="0"                    RangeMax="0"                    offset="92744"               />
        <DataArray type="Float32" Name="elec_mobility_xz[cm2/V/s]" format="appended" RangeMin="0"                    RangeMax="0"                    offset="94160"               />
        <DataArray type="Float32" Name="elec_mobility_yz[cm2/V/s]" format="appended" RangeMin="0"                    RangeMax="0"                    offset="95576"               />
        <DataArray type="Float32" Name="hole_mobility_xx[cm2/V/s]" format="appended" RangeMin="0"                    RangeMax="0"                    offset="96992"               />
        <DataArray type="Float32" Name="hole_mobility_yy[cm2/V/s]" format="appended" RangeMin="0"                    RangeMax="0"                    offset="98408"               />
        <DataArray type="Float32" Name="hole_mobility_zz[cm2/V/s]" format="appended" RangeMin="0"                    RangeMax="0"                    offset="99824"               />
        <DataArray type="Float32" Name="hole_mobility_xy[cm2/V/s]" format="appended" RangeMin="0"                    RangeMax="0"                    offset="101240"              />
        <DataArray type="Float32" Name="hole_mobility_xz[cm2/V/s]" format="appended" RangeMin="0"                    RangeMax="0"                    offset="102656"              />
        <DataArray type="Float32" Name="hole_mobility_yz[cm2/V/s]" format="appended" RangeMin="0"                    RangeMax="0"                    offset="104072"              />
        <DataArray type="Float32" Name="elec_mobility_factor_xx" format="appended" RangeMin="0"                    RangeMax="0"                    offset="105488"              />
        <DataArray type="Float32" Name="elec_mobility_factor_yy" format="appended" RangeMin="0"                    RangeMax="0"                    offset="106904"              />
        <DataArray type="Float32" Name="elec_mobility_factor_zz" format="appended" RangeMin="0"                    RangeMax="0"                    offset="108320"              />
        <DataArray type="Float32" Name="elec_mobility_factor_xy" format="appended" RangeMin="0"                    RangeMax="0"                    offset="109736"              />
        <DataArray type="Float32" Name="elec_mobility_factor_xz" format="appended" RangeMin="0"                    RangeMax="0"                    offset="111152"              />
        <DataArray type="Float32" Name="elec_mobility_factor_yz" format="appended" RangeMin="0"                    RangeMax="0"                    offset="112568"              />
        <DataArray type="Float32" Name="hole_mobility_factor_xx" format="appended" RangeMin="0"                    RangeMax="0"                    offset="113984"              />
        <DataArray type="Float32" Name="hole_mobility_factor_yy" format="appended" RangeMin="0"                    RangeMax="0"                    offset="115400"              />
        <DataArray type="Float32" Name="hole_mobility_factor_zz" format="appended" RangeMin="0"                    RangeMax="0"                    offset="116816"              />
        <DataArray type="Float32" Name="hole_mobility_factor_xy" format="appended" RangeMin="0"                    RangeMax="0"                    offset="118232"              />
        <DataArray type="Float32" Name="hole_mobility_factor_xz" format="appended" RangeMin="0"                    RangeMax="0"                    offset="119648"              />
        <DataArray type="Float32" Name="hole_mobility_factor_yz" format="appended" RangeMin="0"                    RangeMax="0"                    offset="121064"              />
        <DataArray type="Float32" Name="strain" format="appended" RangeMin="0"                    RangeMax="0"                    offset="122480"              />
        <DataArray type="Float32" Name="dEc_BGN[eV]" format="appended" RangeMin="0"                    RangeMax="0.047896251082"       offset="123896"              />
        <DataArray type="Float32" Name="dEv_BGN[eV]" format="appended" RangeMin="0"                    RangeMax="0.047896251082"       offset="126268"              />
        <DataArray type="Float32" Name="dEc_strain[eV]" format="appended" RangeMin="0"                    RangeMax="0"                    offset="128640"              />
        <DataArray type="Float32" Name="dEv_strain[eV]" format="appended" RangeMin="0"                    RangeMax="0"                    offset="130056"              />
        <DataArray type="Float32" Name="dNc_strain" format="appended" RangeMin="0"                    RangeMax="1"                    offset="131472"              />
        <DataArray type="Float32" Name="dNv_strain" format="appended" RangeMin="0"                    RangeMax="1"                    offset="132952"              />
        <DataArray type="Float32" Name="temperature[K]" format="appended" RangeMin="300"                  RangeMax="300"                  offset="134432"              />
      </PointData>
      <CellData>
        <DataArray type="Int32" Name="region" format="appended" RangeMin="0"                    RangeMax="17"                   offset="135996"              />
        <DataArray type="Int32" Name="boundary" format="appended" RangeMin="0"                    RangeMax="57"                   offset="147288"              />
        <DataArray type="Int32" Name="partition" format="appended" RangeMin="0"                    RangeMax="0"                    offset="156060"              />
        <DataArray type="Float32" Name="electrical_field[V/cm]" NumberOfComponents="3" format="appended" RangeMin="0"                    RangeMax="0"                    offset="157784"              />
        <DataArray type="Float32" Name="elec_current[A/cm^2]" NumberOfComponents="3" format="appended" RangeMin="0"                    RangeMax="0"                    offset="162884"              />
        <DataArray type="Float32" Name="hole_current[A/cm^2]" NumberOfComponents="3" format="appended" RangeMin="0"                    RangeMax="0"                    offset="167984"              />
      </CellData>
      <Points>
        <DataArray type="Float32" Name="Points" NumberOfComponents="3" format="appended" RangeMin="0.013000000268"       RangeMax="0.11483901952"        offset="173084"              />
      </Points>
      <Cells>
        <DataArray type="Int64" Name="connectivity" format="appended" RangeMin=""                     RangeMax=""                     offset="578080"              />
        <DataArray type="Int64" Name="offsets" format="appended" RangeMin=""                     RangeMax=""                     offset="3059376"             />
        <DataArray type="UInt8" Name="types" format="appended" RangeMin=""                     RangeMax=""                     offset="3365364"             />
      </Cells>
    </Piece>
  </UnstructuredGrid>
  <AppendedData encoding="base64">